875760
  DSViewer          3D                             0

 17 18  0  0  0  0  0  0  0  0999 V2000
   -1.3389    0.0001   -0.7000 C   0  0  0  0  0  0  0  0  0  1
   -0.0235    0.0001    0.0413 C   0  0  0  0  0  0  0  0  0  2
   -0.0086    0.0460    1.4403 C   0  0  0  0  0  0  0  0  0  3
    1.2111    0.0460    2.1277 C   0  0  0  0  0  0  0  0  0  4
    2.4157    0.0000    1.4160 C   0  0  0  0  0  0  0  0  0  5
    2.4007   -0.0459    0.0168 C   0  0  0  0  0  0  0  0  0  6
    1.1811   -0.0458   -0.6704 C   0  0  0  0  0  0  0  0  0  7
    3.9577    0.0000    2.2850 S   0  0  0  0  0  0  0  0  0  8
    4.4831   -1.7159    2.5883 C   0  0  0  0  0  0  0  0  0  9
    5.7908   -1.7159    3.3433 C   0  0  0  0  0  0  0  0  0 10
    6.4367   -0.6751    3.4546 O   0  0  0  0  0  0  0  0  0 11
    6.2442   -2.8413    3.8880 N   0  0  0  0  0  0  0  0  0 12
    7.3927   -2.8713    4.8049 C   0  0  0  0  0  0  0  0  0 13
    8.3589   -4.0270    4.4845 C   0  0  0  0  0  0  0  0  0 14
    7.6652   -5.2737    4.3871 O   0  0  0  0  0  0  0  0  0 15
    6.6795   -5.2526    3.3512 C   0  0  0  0  0  0  0  0  0 16
    5.6359   -4.1525    3.6201 C   0  0  0  0  0  0  0  0  0 17
  1  2  1  0  0  0
  2  3  2  0  0  0
  3  4  1  0  0  0
  4  5  2  0  0  0
  5  6  1  0  0  0
  6  7  2  0  0  0
  7  2  1  0  0  0
  5  8  1  0  0  0
  8  9  1  0  0  0
  9 10  1  0  0  0
 10 11  2  0  0  0
 10 12  1  0  0  0
 12 13  1  0  0  0
 13 14  1  0  0  0
 14 15  1  0  0  0
 15 16  1  0  0  0
 16 17  1  0  0  0
 17 12  1  0  0  0
M  END
> <Outcome>
Active

> <PUBCHEM_IUPAC_NAME>
2-(4-methylphenyl)sulfanyl-1-morpholin-4-yl-ethanone

$$$$
